GCMC simulation of CO2 in zeolite
use gaspressure              # input is in partial pressure in GCMC moves 
finish
temperature       273.0
acceptmolmoveupdate  200     # Period (in moves) at which the
acceptmolrotupdate  200      # Period (in moves) at which the 
steps             100000     # Number of moves to perform in simulation
equilibration     50000      # Equilibration time before statistics 
print               1000     # Information is output every 'print' moves
revconformat dlmonte         # REVCON file is in DL_POLY CONFIG format
archiveformat dlpoly4        # ARCHIVE/trajectory file format
stack              10000     # Size of blocks (in moves) for block averaging
yamldata 1000
maxmolrot           0.005    # Initial maximum rotation angle (degrees)
move molecule 1 20           # Perform translation moves for 
co2                          # move co2 molecule type
move rotatemol 1 20          # Perform rotation moves for 
co2                          # rotate co2 molecule type
move gcinsertmol 1 60 0.5    # Perform insertion/removal moves 
co2 0.0001                   # Insert/remove CO2 with a 
start